VARIABLES="X","Y","U","V","P"
ZONE  F=POINT
I=49, J=49
0.00000000	0.00000000	0.00000000	0.00000000	0.00000000
0.00000000	0.01063830	0.00000000	0.00000000	0.00000000
0.00000000	0.03191489	0.00000000	0.00000000	0.00000000
0.00000000	0.05319149	0.00000000	0.00000000	0.00000000
0.00000000	0.07446809	0.00000000	0.00000000	0.00000000
0.00000000	0.09574468	0.00000000	0.00000000	0.00000000
0.00000000	0.11702128	0.00000000	0.00000000	0.00000000
0.00000000	0.13829787	0.00000000	0.00000000	0.00000000
0.00000000	0.15957447	0.00000000	0.00000000	0.00000000
0.00000000	0.18085106	0.00000000	0.00000000	0.00000000
0.00000000	0.20212766	0.00000000	0.00000000	0.00000000
0.00000000	0.22340426	0.00000000	0.00000000	0.00000000
0.00000000	0.24468085	0.00000000	0.00000000	0.00000000
0.00000000	0.26595745	0.00000000	0.00000000	0.00000000
0.00000000	0.28723404	0.00000000	0.00000000	0.00000000
0.00000000	0.30851064	0.00000000	0.00000000	0.00000000
0.00000000	0.32978723	0.00000000	0.00000000	0.00000000
0.00000000	0.35106383	0.00000000	0.00000000	0.00000000
0.00000000	0.37234043	0.00000000	0.00000000	0.00000000
0.00000000	0.39361702	0.00000000	0.00000000	0.00000000
0.00000000	0.41489362	0.00000000	0.00000000	0.00000000
0.00000000	0.43617021	0.00000000	0.00000000	0.00000000
0.00000000	0.45744681	0.00000000	0.00000000	0.00000000
0.00000000	0.47872340	0.00000000	0.00000000	0.00000000
0.00000000	0.50000000	0.00000000	0.00000000	0.00000000
0.00000000	0.52127660	0.00000000	0.00000000	0.00000000
0.00000000	0.54255319	0.00000000	0.00000000	0.00000000
0.00000000	0.56382979	0.00000000	0.00000000	0.00000000
0.00000000	0.58510638	0.00000000	0.00000000	0.00000000
0.00000000	0.60638298	0.00000000	0.00000000	0.00000000
0.00000000	0.62765957	0.00000000	0.00000000	0.00000000
0.00000000	0.64893617	0.00000000	0.00000000	0.00000000
0.00000000	0.67021277	0.00000000	0.00000000	0.00000000
0.00000000	0.69148936	0.00000000	0.00000000	0.00000000
0.00000000	0.71276596	0.00000000	0.00000000	0.00000000
0.00000000	0.73404255	0.00000000	0.00000000	0.00000000
0.00000000	0.75531915	0.00000000	0.00000000	0.00000000
0.00000000	0.77659574	0.00000000	0.00000000	0.00000000
0.00000000	0.79787234	0.00000000	0.00000000	0.00000000
0.00000000	0.81914894	0.00000000	0.00000000	0.00000000
0.00000000	0.84042553	0.00000000	0.00000000	0.00000000
0.00000000	0.86170213	0.00000000	0.00000000	0.00000000
0.00000000	0.88297872	0.00000000	0.00000000	0.00000000
0.00000000	0.90425532	0.00000000	0.00000000	0.00000000
0.00000000	0.92553191	0.00000000	0.00000000	0.00000000
0.00000000	0.94680851	0.00000000	0.00000000	0.00000000
0.00000000	0.96808511	0.00000000	0.00000000	0.00000000
0.00000000	0.98936170	0.00000000	0.00000000	0.00000000
0.00000000	1.00000000	0.00000000	0.00000000	0.00000000
0.01063830	0.00000000	0.00000000	0.00000000	0.00000000
0.01063830	0.01063830	-0.00000010	0.00000010	-0.00000017
0.01063830	0.03191489	-0.00000037	0.00000005	-0.00000017
0.01063830	0.05319149	-0.00000062	-0.00000006	-0.00000017
0.01063830	0.07446809	-0.00000081	-0.00000020	-0.00000016
0.01063830	0.09574468	-0.00000097	-0.00000025	-0.00000015
0.01063830	0.11702128	-0.00000114	-0.00000013	-0.00000013
0.01063830	0.13829787	-0.00000135	0.00000023	-0.00000013
0.01063830	0.15957447	-0.00000162	0.00000091	-0.00000016
0.01063830	0.18085106	-0.00000198	0.00000205	-0.00000024
0.01063830	0.20212766	-0.00000244	0.00000381	-0.00000040
0.01063830	0.22340426	-0.00000303	0.00000645	-0.00000069
0.01063830	0.24468085	-0.00000378	0.00001032	-0.00000116
0.01063830	0.26595745	-0.00000473	0.00001590	-0.00000190
0.01063830	0.28723404	-0.00000594	0.00002385	-0.00000303
0.01063830	0.30851064	-0.00000748	0.00003504	-0.00000470
0.01063830	0.32978723	-0.00000942	0.00005064	-0.00000714
0.01063830	0.35106383	-0.00001186	0.00007221	-0.00001065
0.01063830	0.37234043	-0.00001494	0.00010177	-0.00001563
0.01063830	0.39361702	-0.00001879	0.00014201	-0.00002261
0.01063830	0.41489362	-0.00002361	0.00019636	-0.00003231
0.01063830	0.43617021	-0.00002962	0.00026930	-0.00004568
0.01063830	0.45744681	-0.00003712	0.00036656	-0.00006396
0.01063830	0.47872340	-0.00004651	0.00049543	-0.00008875
0.01063830	0.50000000	-0.00005832	0.00066521	-0.00012217
0.01063830	0.52127660	-0.00007327	0.00088766	-0.00016692
0.01063830	0.54255319	-0.00009237	0.00117761	-0.00022647
0.01063830	0.56382979	-0.00011702	0.00155368	-0.00030528
0.01063830	0.58510638	-0.00014919	0.00203919	-0.00040903
0.01063830	0.60638298	-0.00019161	0.00266319	-0.00054489
0.01063830	0.62765957	-0.00024810	0.00346173	-0.00072195
0.01063830	0.64893617	-0.00032403	0.00447952	-0.00095164
0.01063830	0.67021277	-0.00042700	0.00577180	-0.00124830
0.01063830	0.69148936	-0.00056800	0.00740712	-0.00162983
0.01063830	0.71276596	-0.00076334	0.00947111	-0.00211863
0.01063830	0.73404255	-0.00103793	0.01207239	-0.00274269
0.01063830	0.75531915	-0.00143101	0.01535206	-0.00353714
0.01063830	0.77659574	-0.00200603	0.01949963	-0.00454655
0.01063830	0.79787234	-0.00286797	0.02478003	-0.00582834
0.01063830	0.81914894	-0.00419328	0.03158019	-0.00745821
0.01063830	0.84042553	-0.00628041	0.04048812	-0.00953902
0.01063830	0.86170213	-0.00962725	0.05242217	-0.01221556
0.01063830	0.88297872	-0.01501957	0.06881687	-0.01569862
0.01063830	0.90425532	-0.02350323	0.09178640	-0.02030154
0.01063830	0.92553191	-0.03568490	0.12381030	-0.02648352
0.01063830	0.94680851	-0.04830015	0.16507761	-0.03484925
0.01063830	0.96808511	-0.04093899	0.18973882	-0.04588014
0.01063830	0.98936170	0.20409412	0.11982365	-0.05714356
0.01063830	1.00000000	1.00000000	0.00000000	0.00000000
0.03191489	0.00000000	0.00000000	0.00000000	0.00000000
0.03191489	0.01063830	-0.00000023	-0.00000011	-0.00000016
0.03191489	0.03191489	-0.00000047	-0.00000013	-0.00000016
0.03191489	0.05319149	-0.00000070	-0.00000025	-0.00000015
0.03191489	0.07446809	-0.00000091	-0.00000039	-0.00000013
0.03191489	0.09574468	-0.00000110	-0.00000044	-0.00000011
0.03191489	0.11702128	-0.00000133	-0.00000031	-0.00000009
0.03191489	0.13829787	-0.00000161	0.00000010	-0.00000008
0.03191489	0.15957447	-0.00000197	0.00000091	-0.00000010
0.03191489	0.18085106	-0.00000244	0.00000225	-0.00000017
0.03191489	0.20212766	-0.00000306	0.00000437	-0.00000031
0.03191489	0.22340426	-0.00000386	0.00000756	-0.00000058
0.03191489	0.24468085	-0.00000490	0.00001226	-0.00000103
0.03191489	0.26595745	-0.00000624	0.00001907	-0.00000173
0.03191489	0.28723404	-0.00000798	0.00002878	-0.00000282
0.03191489	0.30851064	-0.00001024	0.00004250	-0.00000444
0.03191489	0.32978723	-0.00001315	0.00006166	-0.00000681
0.03191489	0.35106383	-0.00001691	0.00008819	-0.00001023
0.03191489	0.37234043	-0.00002173	0.00012462	-0.00001510
0.03191489	0.39361702	-0.00002791	0.00017426	-0.00002195
0.03191489	0.41489362	-0.00003580	0.00024139	-0.00003148
0.03191489	0.43617021	-0.00004587	0.00033156	-0.00004464
0.03191489	0.45744681	-0.00005868	0.00045186	-0.00006265
0.03191489	0.47872340	-0.00007500	0.00061133	-0.00008711
0.03191489	0.50000000	-0.00009579	0.00082148	-0.00012011
0.03191489	0.52127660	-0.00012237	0.00109680	-0.00016433
0.03191489	0.54255319	-0.00015647	0.00145560	-0.00022321
0.03191489	0.56382979	-0.00020044	0.00192080	-0.00030116
0.03191489	0.58510638	-0.00025743	0.00252102	-0.00040377
0.03191489	0.60638298	-0.00033175	0.00329188	-0.00053814
0.03191489	0.62765957	-0.00042921	0.00427748	-0.00071321
0.03191489	0.64893617	-0.00055780	0.00553223	-0.00094022
0.03191489	0.67021277	-0.00072850	0.00712306	-0.00123324
0.03191489	0.69148936	-0.00095677	0.00913221	-0.00160979
0.03191489	0.71276596	-0.00126478	0.01166115	-0.00209166
0.03191489	0.73404255	-0.00168524	0.01483601	-0.00270593
0.03191489	0.75531915	-0.00226776	0.01881597	-0.00348625
0.03191489	0.77659574	-0.00308936	0.02380584	-0.00447464
0.03191489	0.79787234	-0.00427159	0.03007457	-0.00572400
0.03191489	0.81914894	-0.00600694	0.03798037	-0.00730164
0.03191489	0.84042553	-0.00859495	0.04799761	-0.00929415
0.03191489	0.86170213	-0.01247386	0.06072288	-0.01181342
0.03191489	0.88297872	-0.01817626	0.07678414	-0.01500210
0.03191489	0.90425532	-0.02593851	0.09642681	-0.01903113
0.03191489	0.92553191	-0.03404978	0.11816116	-0.02406622
0.03191489	0.94680851	-0.03302687	0.13492750	-0.03013828
0.03191489	0.96808511	0.01334701	0.11673842	-0.03674941
0.03191489	0.98936170	0.29491666	0.06187634	-0.04111169
0.03191489	1.00000000	1.00000000	0.00000000	0.00000000
0.05319149	0.00000000	0.00000000	0.00000000	0.00000000
0.05319149	0.01063830	-0.00000057	-0.00000037	-0.00000014
0.05319149	0.03191489	-0.00000088	-0.00000036	-0.00000013
0.05319149	0.05319149	-0.00000114	-0.00000052	-0.00000011
0.05319149	0.07446809	-0.00000143	-0.00000066	-0.00000008
0.05319149	0.09574468	-0.00000175	-0.00000074	-0.00000004
0.05319149	0.11702128	-0.00000213	-0.00000067	-0.00000001
0.05319149	0.13829787	-0.00000261	-0.00000036	0.00000002
0.05319149	0.15957447	-0.00000323	0.00000031	0.00000002
0.05319149	0.18085106	-0.00000403	0.00000147	-0.00000001
0.05319149	0.20212766	-0.00000508	0.00000334	-0.00000011
0.05319149	0.22340426	-0.00000645	0.00000622	-0.00000032
0.05319149	0.24468085	-0.00000825	0.00001052	-0.00000070
0.05319149	0.26595745	-0.00001061	0.00001679	-0.00000131
0.05319149	0.28723404	-0.00001369	0.00002581	-0.00000228
0.05319149	0.30851064	-0.00001773	0.00003863	-0.00000374
0.05319149	0.32978723	-0.00002300	0.00005664	-0.00000591
0.05319149	0.35106383	-0.00002988	0.00008168	-0.00000906
0.05319149	0.37234043	-0.00003884	0.00011622	-0.00001359
0.05319149	0.39361702	-0.00005046	0.00016344	-0.00001999
0.05319149	0.41489362	-0.00006548	0.00022750	-0.00002895
0.05319149	0.43617021	-0.00008487	0.00031375	-0.00004137
0.05319149	0.45744681	-0.00010982	0.00042907	-0.00005844
0.05319149	0.47872340	-0.00014188	0.00058217	-0.00008170
0.05319149	0.50000000	-0.00018306	0.00078413	-0.00011317
0.05319149	0.52127660	-0.00023597	0.00104889	-0.00015541
0.05319149	0.54255319	-0.00030408	0.00139394	-0.00021176
0.05319149	0.56382979	-0.00039194	0.00184114	-0.00028644
0.05319149	0.58510638	-0.00050568	0.00241768	-0.00038483
0.05319149	0.60638298	-0.00065347	0.00315718	-0.00051371
0.05319149	0.62765957	-0.00084631	0.00410106	-0.00068160
0.05319149	0.64893617	-0.00109902	0.00529995	-0.00089920
0.05319149	0.67021277	-0.00143172	0.00681535	-0.00117980
0.05319149	0.69148936	-0.00187206	0.00872147	-0.00153985
0.05319149	0.71276596	-0.00245866	0.01110729	-0.00199962
0.05319149	0.73404255	-0.00324657	0.01407902	-0.00258393
0.05319149	0.75531915	-0.00431606	0.01776293	-0.00332305
0.05319149	0.77659574	-0.00578630	0.02230831	-0.00425365
0.05319149	0.79787234	-0.00783585	0.02788858	-0.00542003
0.05319149	0.81914894	-0.01072999	0.03469530	-0.00687518
0.05319149	0.84042553	-0.01484691	0.04291083	-0.00868139
0.05319149	0.86170213	-0.02066535	0.05262649	-0.01090879
0.05319149	0.88297872	-0.02858386	0.06363537	-0.01362828
0.05319149	0.90425532	-0.03816320	0.07496305	-0.01689052
0.05319149	0.92553191	-0.04558547	0.08392092	-0.02067480
0.05319149	0.94680851	-0.03590791	0.08452564	-0.02477909
0.05319149	0.96808511	0.03925300	0.06258873	-0.02862021
0.05319149	0.98936170	0.36635866	0.02896756	-0.03066243
0.05319149	1.00000000	1.00000000	0.00000000	0.00000000
0.07446809	0.00000000	0.00000000	0.00000000	0.00000000
0.07446809	0.01063830	-0.00000096	-0.00000056	-0.00000009
0.07446809	0.03191489	-0.00000132	-0.00000056	-0.00000008
0.07446809	0.05319149	-0.00000157	-0.00000080	-0.00000004
0.07446809	0.07446809	-0.00000189	-0.00000100	0.00000000
0.07446809	0.09574468	-0.00000228	-0.00000114	0.00000005
0.07446809	0.11702128	-0.00000276	-0.00000117	0.00000011
0.07446809	0.13829787	-0.00000337	-0.00000099	0.00000016
0.07446809	0.15957447	-0.00000415	-0.00000051	0.00000020
0.07446809	0.18085106	-0.00000516	0.00000040	0.00000021
0.07446809	0.20212766	-0.00000648	0.00000194	0.00000016
0.07446809	0.22340426	-0.00000820	0.00000439	0.00000003
0.07446809	0.24468085	-0.00001045	0.00000811	-0.00000025
0.07446809	0.26595745	-0.00001341	0.00001363	-0.00000074
0.07446809	0.28723404	-0.00001730	0.00002166	-0.00000153
0.07446809	0.30851064	-0.00002241	0.00003318	-0.00000277
0.07446809	0.32978723	-0.00002913	0.00004950	-0.00000465
0.07446809	0.35106383	-0.00003796	0.00007235	-0.00000743
0.07446809	0.37234043	-0.00004954	0.00010405	-0.00001145
0.07446809	0.39361702	-0.00006467	0.00014761	-0.00001721
0.07446809	0.41489362	-0.00008440	0.00020698	-0.00002533
0.07446809	0.43617021	-0.00011004	0.00028723	-0.00003666
0.07446809	0.45744681	-0.00014328	0.00039485	-0.00005233
0.07446809	0.47872340	-0.00018627	0.00053809	-0.00007378
0.07446809	0.50000000	-0.00024178	0.00072738	-0.00010291
0.07446809	0.52127660	-0.00031340	0.00097579	-0.00014215
0.07446809	0.54255319	-0.00040582	0.00129964	-0.00019463
0.07446809	0.56382979	-0.00052524	0.00171919	-0.00026432
0.07446809	0.58510638	-0.00067987	0.00225948	-0.00035623
0.07446809	0.60638298	-0.00088066	0.00295123	-0.00047671
0.07446809	0.62765957	-0.00114226	0.00383188	-0.00063365
0.07446809	0.64893617	-0.00148430	0.00494669	-0.00083691
0.07446809	0.67021277	-0.00193319	0.00634963	-0.00109864
0.07446809	0.69148936	-0.00252459	0.00810424	-0.00143377
0.07446809	0.71276596	-0.00330709	0.01028382	-0.00186044
0.07446809	0.73404255	-0.00434765	0.01297094	-0.00240045
0.07446809	0.75531915	-0.00573963	0.01625542	-0.00307971
0.07446809	0.77659574	-0.00761435	0.02022948	-0.00392846
0.07446809	0.79787234	-0.01015579	0.02497718	-0.00498128
0.07446809	0.81914894	-0.01361413	0.03055190	-0.00627631
0.07446809	0.84042553	-0.01830038	0.03692916	-0.00785316
0.07446809	0.86170213	-0.02450601	0.04391197	-0.00974765
0.07446809	0.88297872	-0.03218571	0.05095321	-0.01198088
0.07446809	0.90425532	-0.03995628	0.05685660	-0.01453726
0.07446809	0.92553191	-0.04221243	0.05936656	-0.01732540
0.07446809	0.94680851	-0.02121320	0.05487068	-0.02011771
0.07446809	0.96808511	0.07396457	0.03726384	-0.02248324
0.07446809	0.98936170	0.41042741	0.01613149	-0.02362051
0.07446809	1.00000000	1.00000000	0.00000000	0.00000000
0.09574468	0.00000000	0.00000000	0.00000000	0.00000000
0.09574468	0.01063830	-0.00000135	-0.00000069	-0.00000003
0.09574468	0.03191489	-0.00000178	-0.00000073	-0.00000000
0.09574468	0.05319149	-0.00000201	-0.00000108	0.00000004
0.09574468	0.07446809	-0.00000234	-0.00000137	0.00000010
0.09574468	0.09574468	-0.00000278	-0.00000161	0.00000017
0.09574468	0.11702128	-0.00000334	-0.00000176	0.00000025
0.09574468	0.13829787	-0.00000404	-0.00000175	0.00000034
0.09574468	0.15957447	-0.00000494	-0.00000149	0.00000041
0.09574468	0.18085106	-0.00000609	-0.00000086	0.00000048
0.09574468	0.20212766	-0.00000758	0.00000031	0.00000050
0.09574468	0.22340426	-0.00000951	0.00000225	0.00000045
0.09574468	0.24468085	-0.00001203	0.00000531	0.00000028
0.09574468	0.26595745	-0.00001534	0.00000994	-0.00000005
0.09574468	0.28723404	-0.00001968	0.00001681	-0.00000065
0.09574468	0.30851064	-0.00002541	0.00002679	-0.00000163
0.09574468	0.32978723	-0.00003295	0.00004108	-0.00000317
0.09574468	0.35106383	-0.00004290	0.00006128	-0.00000549
0.09574468	0.37234043	-0.00005600	0.00008951	-0.00000893
0.09574468	0.39361702	-0.00007323	0.00012858	-0.00001391
0.09574468	0.41489362	-0.00009584	0.00018213	-0.00002102
0.09574468	0.43617021	-0.00012542	0.00025487	-0.00003103
0.09574468	0.45744681	-0.00016401	0.00035283	-0.00004497
0.09574468	0.47872340	-0.00021419	0.00048367	-0.00006419
0.09574468	0.50000000	-0.00027929	0.00065700	-0.00009044
0.09574468	0.52127660	-0.00036359	0.00088485	-0.00012595
0.09574468	0.54255319	-0.00047264	0.00118210	-0.00017361
0.09574468	0.56382979	-0.00061370	0.00156710	-0.00023707
0.09574468	0.58510638	-0.00079633	0.00206225	-0.00032092
0.09574468	0.60638298	-0.00103316	0.00269477	-0.00043092
0.09574468	0.62765957	-0.00134104	0.00349736	-0.00057423
0.09574468	0.64893617	-0.00174234	0.00450888	-0.00075967
0.09574468	0.67021277	-0.00226690	0.00577470	-0.00099806
0.09574468	0.69148936	-0.00295443	0.00734657	-0.00130250
0.09574468	0.71276596	-0.00385781	0.00928150	-0.00168864
0.09574468	0.73404255	-0.00504750	0.01163904	-0.00217496
0.09574468	0.75531915	-0.00661735	0.01447601	-0.00278271
0.09574468	0.77659574	-0.00869171	0.01783718	-0.00353570
0.09574468	0.79787234	-0.01143179	0.02173927	-0.00445941
0.09574468	0.81914894	-0.01503387	0.02614407	-0.00557919
0.09574468	0.84042553	-0.01969684	0.03091328	-0.00691695
0.09574468	0.86170213	-0.02549693	0.03573532	-0.00848504
0.09574468	0.88297872	-0.03200457	0.04001526	-0.01027607
0.09574468	0.90425532	-0.03721291	0.04273655	-0.01224648
0.09574468	0.92553191	-0.03466178	0.04236090	-0.01429330
0.09574468	0.94680851	-0.00585494	0.03696529	-0.01622840
0.09574468	0.96808511	0.09962283	0.02396257	-0.01776804
0.09574468	0.98936170	0.43677907	0.01011121	-0.01848088
0.09574468	1.00000000	1.00000000	0.00000000	0.00000000
0.11702128	0.00000000	0.00000000	0.00000000	0.00000000
0.11702128	0.01063830	-0.00000171	-0.00000081	0.00000006
0.11702128	0.03191489	-0.00000223	-0.00000088	0.00000009
0.11702128	0.05319149	-0.00000246	-0.00000136	0.00000015
0.11702128	0.07446809	-0.00000281	-0.00000177	0.00000022
0.11702128	0.09574468	-0.00000328	-0.00000213	0.00000031
0.11702128	0.11702128	-0.00000390	-0.00000242	0.00000042
0.11702128	0.13829787	-0.00000468	-0.00000259	0.00000054
0.11702128	0.15957447	-0.00000566	-0.00000256	0.00000066
0.11702128	0.18085106	-0.00000692	-0.00000224	0.00000078
0.11702128	0.20212766	-0.00000853	-0.00000148	0.00000088
0.11702128	0.22340426	-0.00001060	-0.00000007	0.00000092
0.11702128	0.24468085	-0.00001328	0.00000228	0.00000088
0.11702128	0.26595745	-0.00001676	0.00000598	0.00000071
0.11702128	0.28723404	-0.00002133	0.00001160	0.00000032
0.11702128	0.30851064	-0.00002733	0.00001992	-0.00000038
0.11702128	0.32978723	-0.00003525	0.00003201	-0.00000155
0.11702128	0.35106383	-0.00004569	0.00004930	-0.00000339
0.11702128	0.37234043	-0.00005950	0.00007371	-0.00000619
0.11702128	0.39361702	-0.00007772	0.00010777	-0.00001032
0.11702128	0.41489362	-0.00010173	0.00015479	-0.00001632
0.11702128	0.43617021	-0.00013332	0.00021907	-0.00002487
0.11702128	0.45744681	-0.00017474	0.00030609	-0.00003691
0.11702128	0.47872340	-0.00022888	0.00042281	-0.00005364
0.11702128	0.50000000	-0.00029945	0.00057798	-0.00007665
0.11702128	0.52127660	-0.00039116	0.00078243	-0.00010797
0.11702128	0.54255319	-0.00051007	0.00104952	-0.00015020
0.11702128	0.56382979	-0.00066404	0.00139550	-0.00020663
0.11702128	0.58510638	-0.00086326	0.00184001	-0.00028138
0.11702128	0.60638298	-0.00112111	0.00240650	-0.00037959
0.11702128	0.62765957	-0.00145517	0.00312266	-0.00050759
0.11702128	0.64893617	-0.00188861	0.00402069	-0.00067312
0.11702128	0.67021277	-0.00245198	0.00513717	-0.00088554
0.11702128	0.69148936	-0.00318531	0.00651233	-0.00115601
0.11702128	0.71276596	-0.00414078	0.00818804	-0.00149769
0.11702128	0.73404255	-0.00538580	0.01020404	-0.00192569
0.11702128	0.75531915	-0.00700622	0.01259116	-0.00245687
0.11702128	0.77659574	-0.00910888	0.01536047	-0.00310926
0.11702128	0.79787234	-0.01182035	0.01848659	-0.00390076
0.11702128	0.81914894	-0.01527334	0.02188309	-0.00484700
0.11702128	0.84042553	-0.01955746	0.02536778	-0.00595777
0.11702128	0.86170213	-0.02457339	0.02861671	-0.00723157
0.11702128	0.88297872	-0.02963320	0.03111132	-0.00864774
0.11702128	0.90425532	-0.03240060	0.03209889	-0.01015603
0.11702128	0.92553191	-0.02611130	0.03062197	-0.01166504
0.11702128	0.94680851	0.00772680	0.02572419	-0.01303450
0.11702128	0.96808511	0.11866063	0.01629493	-0.01408311
0.11702128	0.98936170	0.45447121	0.00685266	-0.01456622
0.11702128	1.00000000	1.00000000	0.00000000	0.00000000
0.13829787	0.00000000	0.00000000	0.00000000	0.00000000
0.13829787	0.01063830	-0.00000206	-0.00000094	0.00000017
0.13829787	0.03191489	-0.00000267	-0.00000105	0.00000021
0.13829787	0.05319149	-0.00000292	-0.00000166	0.00000027
0.13829787	0.07446809	-0.00000329	-0.00000219	0.00000036
0.13829787	0.09574468	-0.00000380	-0.00000270	0.00000048
0.13829787	0.11702128	-0.00000447	-0.00000315	0.00000062
0.13829787	0.13829787	-0.00000532	-0.00000351	0.00000078
0.13829787	0.15957447	-0.00000639	-0.00000373	0.00000095
0.13829787	0.18085106	-0.00000774	-0.00000372	0.00000113
0.13829787	0.20212766	-0.00000944	-0.00000337	0.00000130
0.13829787	0.22340426	-0.00001161	-0.00000250	0.00000144
0.13829787	0.24468085	-0.00001438	-0.00000086	0.00000153
0.13829787	0.26595745	-0.00001796	0.00000189	0.00000152
0.13829787	0.28723404	-0.00002261	0.00000624	0.00000135
0.13829787	0.30851064	-0.00002869	0.00001288	0.00000094
0.13829787	0.32978723	-0.00003667	0.00002272	0.00000014
0.13829787	0.35106383	-0.00004718	0.00003703	-0.00000120
0.13829787	0.37234043	-0.00006107	0.00005749	-0.00000334
0.13829787	0.39361702	-0.00007942	0.00008634	-0.00000660
0.13829787	0.41489362	-0.00010367	0.00012652	-0.00001145
0.13829787	0.43617021	-0.00013568	0.00018186	-0.00001850
0.13829787	0.45744681	-0.00017781	0.00025727	-0.00002855
0.13829787	0.47872340	-0.00023314	0.00035896	-0.00004268
0.13829787	0.50000000	-0.00030552	0.00049473	-0.00006229
0.13829787	0.52127660	-0.00039992	0.00067423	-0.00008918
0.13829787	0.54255319	-0.00052262	0.00090922	-0.00012567
0.13829787	0.56382979	-0.00068166	0.00121391	-0.00017465
0.13829787	0.58510638	-0.00088736	0.00160518	-0.00023977
0.13829787	0.60638298	-0.00115301	0.00210285	-0.00032554
0.13829787	0.62765957	-0.00149588	0.00272981	-0.00043744
0.13829787	0.64893617	-0.00193834	0.00351193	-0.00058214
0.13829787	0.67021277	-0.00250947	0.00447764	-0.00076756
0.13829787	0.69148936	-0.00324674	0.00565677	-0.00100304
0.13829787	0.71276596	-0.00419801	0.00707830	-0.00129930
0.13829787	0.73404255	-0.00542335	0.00876625	-0.00166840
0.13829787	0.75531915	-0.00699612	0.01073292	-0.00212333
0.13829787	0.77659574	-0.00900204	0.01296860	-0.00267729
0.13829787	0.79787234	-0.01153261	0.01542667	-0.00334238
0.13829787	0.81914894	-0.01466432	0.01800396	-0.00412740
0.13829787	0.84042553	-0.01840130	0.02051687	-0.00503475
0.13829787	0.86170213	-0.02252411	0.02267691	-0.00605599
0.13829787	0.88297872	-0.02619574	0.02407380	-0.00716638
0.13829787	0.90425532	-0.02693528	0.02418434	-0.00831892
0.13829787	0.92553191	-0.01792497	0.02243890	-0.00943971
0.13829787	0.94680851	0.01912669	0.01838657	-0.01042818
0.13829787	0.96808511	0.13310743	0.01154067	-0.01116804
0.13829787	0.98936170	0.46722813	0.00489305	-0.01151300
0.13829787	1.00000000	1.00000000	0.00000000	0.00000000
0.15957447	0.00000000	0.00000000	0.00000000	0.00000000
0.15957447	0.01063830	-0.00000239	-0.00000109	0.00000031
0.15957447	0.03191489	-0.00000310	-0.00000123	0.00000034
0.15957447	0.05319149	-0.00000337	-0.00000198	0.00000042
0.15957447	0.07446809	-0.00000378	-0.00000266	0.00000053
0.15957447	0.09574468	-0.00000434	-0.00000332	0.00000067
0.15957447	0.11702128	-0.00000508	-0.00000394	0.00000084
0.15957447	0.13829787	-0.00000600	-0.00000451	0.00000104
0.15957447	0.15957447	-0.00000716	-0.00000498	0.00000127
0.15957447	0.18085106	-0.00000860	-0.00000529	0.00000151
0.15957447	0.20212766	-0.00001040	-0.00000535	0.00000176
0.15957447	0.22340426	-0.00001265	-0.00000501	0.00000201
0.15957447	0.24468085	-0.00001550	-0.00000407	0.00000223
0.15957447	0.26595745	-0.00001914	-0.00000225	0.00000239
0.15957447	0.28723404	-0.00002381	0.00000087	0.00000245
0.15957447	0.30851064	-0.00002985	0.00000586	0.00000231
0.15957447	0.32978723	-0.00003772	0.00001351	0.00000189
0.15957447	0.35106383	-0.00004803	0.00002490	0.00000104
0.15957447	0.37234043	-0.00006160	0.00004147	-0.00000045
0.15957447	0.39361702	-0.00007948	0.00006517	-0.00000286
0.15957447	0.41489362	-0.00010311	0.00009854	-0.00000657
0.15957447	0.43617021	-0.00013431	0.00014493	-0.00001212
0.15957447	0.45744681	-0.00017548	0.00020863	-0.00002020
0.15957447	0.47872340	-0.00022968	0.00029510	-0.00003173
0.15957447	0.50000000	-0.00030082	0.00041119	-0.00004793
0.15957447	0.52127660	-0.00039384	0.00056533	-0.00007038
0.15957447	0.54255319	-0.00051504	0.00076778	-0.00010108
0.15957447	0.56382979	-0.00067232	0.00103077	-0.00014255
0.15957447	0.58510638	-0.00087571	0.00136865	-0.00019797
0.15957447	0.60638298	-0.00113793	0.00179796	-0.00027121
0.15957447	0.62765957	-0.00147515	0.00233728	-0.00036698
0.15957447	0.64893617	-0.00190795	0.00300697	-0.00049091
0.15957447	0.67021277	-0.00246257	0.00382841	-0.00064963
0.15957447	0.69148936	-0.00317218	0.00482279	-0.00085078
0.15957447	0.71276596	-0.00407818	0.00600873	-0.00110297
0.15957447	0.73404255	-0.00523116	0.00739858	-0.00141560
0.15957447	0.75531915	-0.00669052	0.00899246	-0.00179844
0.15957447	0.77659574	-0.00852141	0.01076956	-0.00226089
0.15957447	0.79787234	-0.01078528	0.01267626	-0.00281078
0.15957447	0.81914894	-0.01351566	0.01461161	-0.00345246
0.15957447	0.84042553	-0.01665834	0.01641214	-0.00418427
0.15957447	0.86170213	-0.01992152	0.01784089	-0.00499520
0.15957447	0.88297872	-0.02239348	0.01858899	-0.00586131
0.15957447	0.90425532	-0.02154650	0.01830250	-0.00674257
0.15957447	0.92553191	-0.01060160	0.01664854	-0.00758175
0.15957447	0.94680851	0.02852894	0.01342703	-0.00830753
0.15957447	0.96808511	0.14430804	0.00842192	-0.00884389
0.15957447	0.98936170	0.47684265	0.00362131	-0.00909919
0.15957447	1.00000000	1.00000000	0.00000000	0.00000000
0.18085106	0.00000000	0.00000000	0.00000000	0.00000000
0.18085106	0.01063830	-0.00000272	-0.00000126	0.00000046
0.18085106	0.03191489	-0.00000354	-0.00000143	0.00000050
0.18085106	0.05319149	-0.00000384	-0.00000234	0.00000059
0.18085106	0.07446809	-0.00000429	-0.00000316	0.00000072
0.18085106	0.09574468	-0.00000491	-0.00000399	0.00000089
0.18085106	0.11702128	-0.00000572	-0.00000481	0.00000109
0.18085106	0.13829787	-0.00000673	-0.00000560	0.00000134
0.18085106	0.15957447	-0.00000799	-0.00000633	0.00000162
0.18085106	0.18085106	-0.00000954	-0.00000696	0.00000193
0.18085106	0.20212766	-0.00001145	-0.00000742	0.00000227
0.18085106	0.22340426	-0.00001381	-0.00000761	0.00000263
0.18085106	0.24468085	-0.00001675	-0.00000735	0.00000299
0.18085106	0.26595745	-0.00002045	-0.00000642	0.00000332
0.18085106	0.28723404	-0.00002513	-0.00000447	0.00000359
0.18085106	0.30851064	-0.00003112	-0.00000104	0.00000374
0.18085106	0.32978723	-0.00003882	0.00000454	0.00000369
0.18085106	0.35106383	-0.00004880	0.00001316	0.00000332
0.18085106	0.37234043	-0.00006183	0.00002604	0.00000245
0.18085106	0.39361702	-0.00007891	0.00004483	0.00000087
0.18085106	0.41489362	-0.00010137	0.00007169	-0.00000176
0.18085106	0.43617021	-0.00013097	0.00010949	-0.00000587
0.18085106	0.45744681	-0.00016999	0.00016190	-0.00001205
0.18085106	0.47872340	-0.00022139	0.00023362	-0.00002109
0.18085106	0.50000000	-0.00028893	0.00033057	-0.00003401
0.18085106	0.52127660	-0.00037741	0.00046001	-0.00005216
0.18085106	0.54255319	-0.00049286	0.00063075	-0.00007725
0.18085106	0.56382979	-0.00064286	0.00085323	-0.00011145
0.18085106	0.58510638	-0.00083686	0.00113956	-0.00015746
0.18085106	0.60638298	-0.00108664	0.00150340	-0.00021857
0.18085106	0.62765957	-0.00140691	0.00195974	-0.00029878
0.18085106	0.64893617	-0.00181598	0.00252437	-0.00040279
0.18085106	0.67021277	-0.00233663	0.00321305	-0.00053607
0.18085106	0.69148936	-0.00299699	0.00404017	-0.00070481
0.18085106	0.71276596	-0.00383133	0.00501662	-0.00091584
0.18085106	0.73404255	-0.00488029	0.00614656	-0.00117638
0.18085106	0.75531915	-0.00618974	0.00742267	-0.00149362
0.18085106	0.77659574	-0.00780679	0.00881943	-0.00187411
0.18085106	0.79787234	-0.00976919	0.01028439	-0.00232265
0.18085106	0.81914894	-0.01208040	0.01172816	-0.00284084
0.18085106	0.84042553	-0.01465017	0.01301530	-0.00342509
0.18085106	0.86170213	-0.01714852	0.01396073	-0.00406428
0.18085106	0.88297872	-0.01863379	0.01433848	-0.00473740
0.18085106	0.90425532	-0.01657774	0.01391087	-0.00541209
0.18085106	0.92553191	-0.00426297	0.01248260	-0.00604502
0.18085106	0.94680851	0.03624008	0.00997216	-0.00658546
0.18085106	0.96808511	0.15313458	0.00628412	-0.00698241
0.18085106	0.98936170	0.48429221	0.00274836	-0.00717617
0.18085106	1.00000000	1.00000000	0.00000000	0.00000000
0.20212766	0.00000000	0.00000000	0.00000000	0.00000000
0.20212766	0.01063830	-0.00000305	-0.00000145	0.00000062
0.20212766	0.03191489	-0.00000398	-0.00000167	0.00000068
0.20212766	0.05319149	-0.00000432	-0.00000274	0.00000078
0.20212766	0.07446809	-0.00000483	-0.00000373	0.00000093
0.20212766	0.09574468	-0.00000552	-0.00000474	0.00000113
0.20212766	0.11702128	-0.00000641	-0.00000576	0.00000138
0.20212766	0.13829787	-0.00000753	-0.00000678	0.00000167
0.20212766	0.15957447	-0.00000890	-0.00000779	0.00000202
0.20212766	0.18085106	-0.00001058	-0.00000875	0.00000241
0.20212766	0.20212766	-0.00001263	-0.00000962	0.00000284
0.20212766	0.22340426	-0.00001513	-0.00001032	0.00000331
0.20212766	0.24468085	-0.00001821	-0.00001072	0.00000381
0.20212766	0.26595745	-0.00002201	-0.00001063	0.00000432
0.20212766	0.28723404	-0.00002674	-0.00000979	0.00000481
0.20212766	0.30851064	-0.00003270	-0.00000782	0.00000524
0.20212766	0.32978723	-0.00004026	-0.00000417	0.00000554
0.20212766	0.35106383	-0.00004993	0.00000189	0.00000563
0.20212766	0.37234043	-0.00006239	0.00001137	0.00000537
0.20212766	0.39361702	-0.00007855	0.00002563	0.00000456
0.20212766	0.41489362	-0.00009963	0.00004648	0.00000296
0.20212766	0.43617021	-0.00012723	0.00007630	0.00000019
0.20212766	0.45744681	-0.00016346	0.00011821	-0.00000422
0.20212766	0.47872340	-0.00021105	0.00017617	-0.00001092
0.20212766	0.50000000	-0.00027351	0.00025517	-0.00002078
0.20212766	0.52127660	-0.00035531	0.00036140	-0.00003491
0.20212766	0.54255319	-0.00046210	0.00050232	-0.00005475
0.20212766	0.56382979	-0.00060089	0.00068677	-0.00008212
0.20212766	0.58510638	-0.00078038	0.00092486	-0.00011930